Generated by pymatgen.io.lammps.data.LammpsData

23072  atoms
19370  bonds
27674  angles
13806  dihedrals

   11  atom types
    8  bond types
   11  angle types
    8  dihedral types

-0.2500000000 69.5500000000  xlo xhi
-0.2500000000 69.5500000000  ylo yhi
-0.2500000000 69.5500000000  zlo zhi

Masses

1   14.006700
2   12.010700
3    1.007940
4   14.006700
5   12.010700
6   12.010700
7    1.007940
8   10.811000
9   18.998403
10  15.999400
11  12.010700

Pair Coeffs

1   0.170  3.25
2   0.066  3.50
3   0.030  2.50
4   0.170  3.28
5   0.066  3.30
6   0.066  3.30
7   0.015  2.50
8   0.050  3.60
9   0.061  2.94
10  0.210  2.96
11  0.150  3.65

Bond Coeffs

1   367.0  1.471
2   268.0  1.529
3   340.0  1.090
4   650.0  1.157
5   390.0  1.470
6   340.0  1.090
7   340.0  1.372
8  1115.0  1.177


Angle Coeffs

1    75.00  113.012
2    80.00  111.200
3    35.00  109.500
4    37.50  110.700
5    33.00  107.800
6    58.35  112.700
7    35.00  108.500
8    33.00  107.800
9   150.00  180.000
10   60.00  110.611
11   50.00  179.000


Dihedral Coeffs

1 1 0.000000000 1 0.000000000
2 1 0.150000000 2 180.000000000
3 2 -0.114500000 1 0.000000000 0.242500000 2 180.000000000
4 1 0.192000000 2 180.000000000
5 1 0.150000000 2 180.000000000
6 1 0.150000000 2 180.000000000
7 2 -0.075500000 1 0.000000000 0.200000000 2 180.000000000
8 1 0.000000000 1 0.000000000


Atoms

1         1   1  0.38059701492537312273  8.4606160000  4.7109370000 11.8942070000
2         1   2  0.00186567164179104474  9.5141310000  3.8363640000 11.1989540000
3         1   2  0.00186567164179104474  8.4286580000  6.0724540000 11.1846840000
4         1   2  0.00186567164179104474  8.9133930000  4.9403830000 13.3434630000
5         1   2  0.00186567164179104474  7.1278600000  4.0630550000 11.8538300000
6         1   2 -0.08955223880597014408  9.1094960000  3.6285190000  9.7475350000
7         1   2 -0.08955223880597014408  7.4199770000  6.9735390000 11.8809260000
8         1   2 -0.08955223880597014408 10.2821400000  5.6041260000 13.3382100000
9         1   2 -0.08955223880597014408  7.2033620000  2.7210150000 12.5657000000
10        1   2 -0.08955223880597014408 10.1058500000  2.7234240000  9.0239810000
11        1   2 -0.08955223880597014408  7.3187040000  8.3282790000 11.1809090000
12        1   2 -0.08955223880597014408 10.7970620000  5.8109280000 14.7623390000
13        1   2 -0.08955223880597014408  5.8608820000  1.9934880000 12.5107230000
14        1   2 -0.13432835820895519530  9.6928390000  2.4787540000  7.5814930000
15        1   2 -0.13432835820895519530  6.2876530000  9.2255090000 11.8469900000
16        1   2 -0.13432835820895519530 12.1803010000  6.4422170000 14.7698820000
17        1   2 -0.13432835820895519530  5.9341170000  0.6341460000 13.1875300000
18        1   3  0.04477611940298507204  9.6826640000  2.9140310000 11.7596540000
19        1   3  0.04477611940298507204 10.4582040000  4.3834190000 11.1578920000
20        1   3  0.04477611940298507204  8.0443960000  5.9121790000 10.1725960000
21        1   3  0.04477611940298507204  9.4306540000  6.4961850000 11.0907340000
22        1   3  0.04477611940298507204  9.0411710000  3.9634810000 13.8191900000
23        1   3  0.04477611940298507204  8.1490850000  5.4858040000 13.9014430000
24        1   3  0.04477611940298507204  6.7498860000  3.9982190000 10.8303460000
25        1   3  0.04477611940298507204  6.4181780000  4.6704130000 12.4237180000
26        1   3  0.04477611940298507204  9.0792210000  4.5652430000  9.1835750000
27        1   3  0.04477611940298507204  8.1311580000  3.1482840000  9.6567680000
28        1   3  0.04477611940298507204  7.6957370000  7.1787390000 12.9188410000
29        1   3  0.04477611940298507204  6.4121550000  6.5513460000 11.8772150000
30        1   3  0.04477611940298507204 10.2660960000  6.5940290000 12.8754250000
31        1   3  0.04477611940298507204 11.0478230000  5.0044780000 12.8430040000
32        1   3  0.04477611940298507204  7.4501390000  2.8251690000 13.6262600000
33        1   3  0.04477611940298507204  7.9344200000  2.0477520000 12.1120510000
34        1   3  0.04477611940298507204 10.1795280000  1.7604780000  9.5426910000
35        1   3  0.04477611940298507204 11.1031800000  3.1780080000  9.0404500000
36        1   3  0.04477611940298507204  7.0430430000  8.1861380000 10.1295540000
37        1   3  0.04477611940298507204  8.2949360000  8.8276760000 11.1951950000
38        1   3  0.04477611940298507204 10.8404360000  4.8501750000 15.2886550000
39        1   3  0.04477611940298507204 10.1049410000  6.4543760000 15.3179040000
40        1   3  0.04477611940298507204  5.5538840000  1.8571360000 11.4669500000
41        1   3  0.04477611940298507204  5.0884600000  2.5986630000 12.9994450000
42        1   3  0.04477611940298507204  9.6382260000  3.4185330000  7.0227600000
43        1   3  0.04477611940298507204  8.7136700000  1.9907730000  7.5307920000
44        1   3  0.04477611940298507204 10.4208930000  1.8301850000  7.0843100000
45        1   3  0.04477611940298507204  6.5486400000  9.4145650000 12.8932840000
46        1   3  0.04477611940298507204  5.2922620000  8.7697210000 11.8173010000
47        1   3  0.04477611940298507204  6.2348430000 10.1891860000 11.3312760000
48        1   3  0.04477611940298507204 12.1689870000  7.4199230000 14.2771330000
49        1   3  0.04477611940298507204 12.9057290000  5.8052720000 14.2531030000
50        1   3  0.04477611940298507204 12.5257030000  6.5847680000 15.7983040000
51        1   3  0.04477611940298507204  6.2102170000  0.7341730000 14.2427830000
52        1   3  0.04477611940298507204  6.6730200000 -0.0084630000 12.6991120000
53        1   3  0.04477611940298507204  4.9625730000  0.1330660000 13.1373240000
54        2   1  0.38059701492537312273 16.5626340000 20.7403840000 36.4095580000
55        2   2  0.00186567164179104474 15.1309110000 21.2599830000 36.6053520000
56        2   2  0.00186567164179104474 16.8252860000 20.6255100000 34.9009190000
57        2   2  0.00186567164179104474 16.6449950000 19.3317250000 37.0152740000
58        2   2  0.00186567164179104474 17.5448480000 21.6481830000 37.0489150000
59        2   2 -0.08955223880597014408 15.0114490000 22.6395000000 35.9759030000
60        2   2 -0.08955223880597014408 18.2253780000 20.0733340000 34.6795870000
61        2   2 -0.08955223880597014408 15.6222880000 18.4358760000 36.3329450000
62        2   2 -0.08955223880597014408 17.2498580000 21.7334440000 38.5386270000
63        2   2 -0.08955223880597014408 13.6133280000 23.2196580000 36.1859610000
64        2   2 -0.08955223880597014408 18.5511130000 19.9835720000 33.1891370000
65        2   2 -0.08955223880597014408 15.6340760000 17.0315040000 36.9359830000
66        2   2 -0.08955223880597014408 18.2110230000 22.6956400000 39.2349830000
67        2   2 -0.13432835820895519530 13.4921440000 24.6139830000 35.5923420000
68        2   2 -0.13432835820895519530 19.9614660000 19.4656840000 32.9558010000
69        2   2 -0.13432835820895519530 14.5915370000 16.1357820000 36.2858050000
70        2   2 -0.13432835820895519530 17.9024220000 22.8171250000 40.7186430000
71        2   3  0.04477611940298507204 14.8435150000 21.2151810000 37.6583870000
72        2   3  0.04477611940298507204 14.4434510000 20.6267530000 36.0408630000
73        2   3  0.04477611940298507204 16.8291550000 21.6377780000 34.4850260000
74        2   3  0.04477611940298507204 16.0306870000 20.0690530000 34.3995820000
75        2   3  0.04477611940298507204 16.3523600000 19.3956950000 38.0675350000
76        2   3  0.04477611940298507204 17.6704540000 18.9576830000 36.9762850000
77        2   3  0.04477611940298507204 17.5704670000 22.6195630000 36.5485650000
78        2   3  0.04477611940298507204 18.5443810000 21.2117010000 36.9610280000
79        2   3  0.04477611940298507204 15.1778170000 22.6217980000 34.8949650000
80        2   3  0.04477611940298507204 15.7133820000 23.3548280000 36.4136300000
81        2   3  0.04477611940298507204 18.3412680000 19.0647020000 35.0853560000
82        2   3  0.04477611940298507204 18.9976280000 20.7060130000 35.1237860000
83        2   3  0.04477611940298507204 15.8220360000 18.3088300000 35.2660360000
84        2   3  0.04477611940298507204 14.5962070000 18.7881070000 36.4519770000
85        2   3  0.04477611940298507204 17.3659030000 20.7693780000 39.0422580000
86        2   3  0.04477611940298507204 16.2432880000 22.1046750000 38.7448560000
87        2   3  0.04477611940298507204 13.3863520000 23.2666160000 37.2574220000
88        2   3  0.04477611940298507204 12.8646330000 22.5657010000 35.7240280000
89        2   3  0.04477611940298507204 18.4515510000 20.9713990000 32.7245660000
90        2   3  0.04477611940298507204 17.8352370000 19.3180730000 32.6918810000
91        2   3  0.04477611940298507204 15.4373300000 17.0842710000 38.0132220000
92        2   3  0.04477611940298507204 16.6252550000 16.5808430000 36.8087870000
93        2   3  0.04477611940298507204 18.1437720000 23.6879590000 38.7733740000
94        2   3  0.04477611940298507204 19.2430950000 22.3484610000 39.1084290000
95        2   3  0.04477611940298507204 13.6829540000 24.6009830000 34.5144870000
96        2   3  0.04477611940298507204 14.2038640000 25.3028890000 36.0596010000
97        2   3  0.04477611940298507204 12.4837020000 25.0075510000 35.7537200000
98        2   3  0.04477611940298507204 20.0879000000 18.4647860000 33.3810130000
99        2   3  0.04477611940298507204 20.7042210000 20.1295110000 33.4108570000
100       2   3  0.04477611940298507204 20.1707150000 19.4073370000 31.8833110000
101       2   3  0.04477611940298507204 14.7744740000 16.0356260000 35.2109380000
102       2   3  0.04477611940298507204 13.5835640000 16.5396890000 36.4267170000
103       2   3  0.04477611940298507204 14.6217210000 15.1360440000 36.7295260000
104       2   3  0.04477611940298507204 17.9891620000 21.8468570000 41.2194940000
105       2   3  0.04477611940298507204 16.8886320000 23.1965280000 40.8791430000
106       2   3  0.04477611940298507204 18.6031920000 23.5089030000 41.1959940000
107       3   1  0.38059701492537312273 10.9361810000  7.0454160000 22.3839260000
108       3   2  0.00186567164179104474 11.9429640000  6.0533040000 21.7837160000
109       3   2  0.00186567164179104474 11.4549840000  8.4669330000 22.1225720000
110       3   2  0.00186567164179104474 10.8981460000  6.8248200000 23.9030980000
111       3   2  0.00186567164179104474  9.5914740000  6.8564270000 21.7892270000
112       3   2 -0.08955223880597014408 12.0304270000  6.2797910000 20.2821840000
113       3   2 -0.08955223880597014408 10.4946120000  9.4698670000 22.7438250000
114       3   2 -0.08955223880597014408 12.2949760000  7.0269430000 24.4706010000
115       3   2 -0.08955223880597014408  9.1158750000  5.4393010000 22.0704590000
116       3   2 -0.08955223880597014408 12.9881260000  5.2824610000 19.6313430000
117       3   2 -0.08955223880597014408 10.9454370000 10.9042270000 22.4700210000
118       3   2 -0.08955223880597014408 12.3172570000  6.7715070000 25.9773560000
119       3   2 -0.08955223880597014408  7.7496740000  5.1821560000 21.4364700000
120       3   2 -0.13432835820895519530 13.0566870000  5.4754090000 18.1249280000
121       3   2 -0.13432835820895519530  9.9742600000 11.9165470000 23.0563430000
122       3   2 -0.13432835820895519530 13.7156630000  6.9364100000 26.5511180000
123       3   2 -0.13432835820895519530  7.2803050000  3.7567910000 21.6799230000
124       3   3  0.04477611940298507204 11.6976880000  5.0292650000 22.0746970000
125       3   3  0.04477611940298507204 12.9391850000  6.2834050000 22.1668960000
126       3   3  0.04477611940298507204 11.4194950000  8.6416590000 21.0428130000
127       3   3  0.04477611940298507204 12.4949270000  8.5754840000 22.4373790000
128       3   3  0.04477611940298507204 10.6330190000  5.7797840000 24.0890840000
129       3   3  0.04477611940298507204 10.1294140000  7.4507590000 24.3616240000
130       3   3  0.04477611940298507204  9.5868530000  7.1203640000 20.7286130000
131       3   3  0.04477611940298507204  8.8821650000  7.5209340000 22.2918370000
132       3   3  0.04477611940298507204 12.4060510000  7.2758160000 20.0306680000
133       3   3  0.04477611940298507204 11.0634460000  6.1492370000 19.7883080000
134       3   3  0.04477611940298507204 10.4322340000  9.3646730000 23.8303150000
135       3   3  0.04477611940298507204  9.4835070000  9.3844870000 22.3384330000
136       3   3  0.04477611940298507204 12.6603570000  8.0474290000 24.3311730000
137       3   3  0.04477611940298507204 13.0311890000  6.3373000000 24.0541150000
138       3   3  0.04477611940298507204  8.9968040000  5.2442850000 23.1401900000
139       3   3  0.04477611940298507204  9.7897950000  4.6832080000 21.6609710000
140       3   3  0.04477611940298507204 12.6619070000  4.2580850000 19.8457860000
141       3   3  0.04477611940298507204 13.9924440000  5.3985610000 20.0549610000
142       3   3  0.04477611940298507204 11.0265590000 11.0708070000 21.3896450000
143       3   3  0.04477611940298507204 11.9412290000 11.0688860000 22.8988750000
144       3   3  0.04477611940298507204 11.9612690000  5.7568360000 26.1910200000
145       3   3  0.04477611940298507204 11.6369270000  7.4671760000 26.4822370000
146       3   3  0.04477611940298507204  7.8008930000  5.3621060000 20.3560550000
147       3   3  0.04477611940298507204  7.0107900000  5.8803170000 21.8467670000
148       3   3  0.04477611940298507204 13.4089950000  6.4806130000 17.8723560000
149       3   3  0.04477611940298507204 12.0733590000  5.3297100000 17.6652500000
150       3   3  0.04477611940298507204 13.7484220000  4.7521050000 17.6819530000
151       3   3  0.04477611940298507204  9.8919320000 11.7991160000 24.1417090000
152       3   3  0.04477611940298507204  8.9760200000 11.8014400000 22.6208050000
153       3   3  0.04477611940298507204 10.3186270000 12.9346420000 22.8506300000
154       3   3  0.04477611940298507204 14.0930180000  7.9502350000 26.3820050000
155       3   3  0.04477611940298507204 14.4143690000  6.2287250000 26.0928630000
156       3   3  0.04477611940298507204 13.7061400000  6.7536790000 27.6299110000
157       3   3  0.04477611940298507204  7.1888830000  3.5500980000 22.7517050000
158       3   3  0.04477611940298507204  7.9802180000  3.0339380000 21.2497110000
159       3   3  0.04477611940298507204  6.3008470000  3.5964820000 21.2189860000
160       4   1  0.38059701492537312273  8.2340920000 21.4418380000 50.7488970000
161       4   2  0.00186567164179104474  9.5955440000 20.8271000000 51.1048370000
162       4   2  0.00186567164179104474  7.2983550000 20.3055140000 50.3114760000
163       4   2  0.00186567164179104474  8.4343110000 22.3809760000 49.5505960000
164       4   2  0.00186567164179104474  7.6684540000 22.1757700000 51.9060560000
165       4   2 -0.08955223880597014408  9.4169190000 19.8591820000 52.2644810000
166       4   2 -0.08955223880597014408  5.9527920000 20.8933190000 49.9138690000
167       4   2 -0.08955223880597014408  9.0158460000 21.5890920000 48.3892240000
168       4   2 -0.08955223880597014408  8.6238050000 23.2896630000 52.3061530000
169       4   2 -0.08955223880597014408 10.7556650000 19.2549780000 52.6865530000
170       4   2 -0.08955223880597014408  4.9698620000 19.7937530000 49.5133630000
171       4   2 -0.08955223880597014408  9.2772960000 22.4932760000 47.1850030000
172       4   2 -0.08955223880597014408  8.1036850000 24.0478300000 53.5264930000
173       4   2 -0.13432835820895519530 10.5953430000 18.3127490000 53.8688030000
174       4   2 -0.13432835820895519530  3.6098480000 20.3665070000 49.1472140000
175       4   2 -0.13432835820895519530  9.8913550000 21.7198920000 46.0288270000
176       4   2 -0.13432835820895519530  9.0684930000 25.1405570000 53.9581580000
177       4   3  0.04477611940298507204 10.3399830000 21.6081000000 51.2761120000
178       4   3  0.04477611940298507204  9.9369670000 20.2131680000 50.2689260000
179       4   3  0.04477611940298507204  7.1077030000 19.6752920000 51.1856270000
180       4   3  0.04477611940298507204  7.7644860000 19.6764980000 49.5502730000
181       4   3  0.04477611940298507204  9.1837190000 23.1291420000 49.8255820000
182       4   3  0.04477611940298507204  7.5063220000 22.9080360000 49.3181350000
183       4   3  0.04477611940298507204  7.4189630000 21.4945310000 52.7235240000
184       4   3  0.04477611940298507204  6.7402370000 22.6667370000 51.5983680000
185       4   3  0.04477611940298507204  8.7661860000 19.0175460000 52.0102880000
186       4   3  0.04477611940298507204  9.0041790000 20.3490770000 53.1508540000
187       4   3  0.04477611940298507204  6.0327750000 21.5673690000 49.0567360000
188       4   3  0.04477611940298507204  5.4803150000 21.4427810000 50.7316850000
189       4   3  0.04477611940298507204  8.3414110000 20.8042980000 48.0376960000
190       4   3  0.04477611940298507204  9.9815230000 21.1359180000 48.6198320000
191       4   3  0.04477611940298507204  8.7495100000 24.0349150000 51.5153750000
192       4   3  0.04477611940298507204  9.6129450000 22.9142600000 52.5785500000
193       4   3  0.04477611940298507204 11.4558030000 20.0534670000 52.9585330000
194       4   3  0.04477611940298507204 11.1989040000 18.7067590000 51.8471590000
195       4   3  0.04477611940298507204  4.8479140000 19.0826100000 50.3385570000
196       4   3  0.04477611940298507204  5.3675360000 19.2332600000 48.6587670000
197       4   3  0.04477611940298507204  9.9534110000 23.3085850000 47.4679810000
198       4   3  0.04477611940298507204  8.3380750000 22.9509200000 46.8531370000
199       4   3  0.04477611940298507204  7.9545510000 23.3523980000 54.3610210000
200       4   3  0.04477611940298507204  7.1292360000 24.4958840000 53.2997370000
201       4   3  0.04477611940298507204  9.9244470000 17.4833570000 53.6231260000
202       4   3  0.04477611940298507204 10.1875280000 18.8394140000 54.7381570000
203       4   3  0.04477611940298507204 11.5653960000 17.8921790000 54.1516690000
204       4   3  0.04477611940298507204  3.6896050000 21.0597020000 48.3035880000
205       4   3  0.04477611940298507204  3.1687270000 20.9035080000 49.9936580000
206       4   3  0.04477611940298507204  2.9248450000 19.5623530000 48.8616750000
207       4   3  0.04477611940298507204  9.2282610000 20.9134400000 45.6990080000
208       4   3  0.04477611940298507204 10.8515260000 21.2792610000 46.3167880000
209       4   3  0.04477611940298507204 10.0649120000 22.3855780000 45.1779360000
210       4   3  0.04477611940298507204  9.2187960000 25.8720630000 53.1568450000
211       4   3  0.04477611940298507204 10.0427780000 24.7207380000 54.2264800000
212       4   3  0.04477611940298507204  8.6750850000 25.6701440000 54.8312380000
213       5   1  0.38059701492537312273 26.5814080000 44.5389690000 11.4012580000
214       5   2  0.00186567164179104474 27.5578230000 44.5868750000 12.5855160000
215       5   2  0.00186567164179104474 25.2324460000 44.0171830000 11.9172170000
216       5   2  0.00186567164179104474 27.1223010000 43.5291560000 10.3786610000
217       5   2  0.00186567164179104474 26.4293980000 45.8804220000 10.7888710000
218       5   2 -0.08955223880597014408 27.0226080000 45.5506950000 13.6334380000
219       5   2 -0.08955223880597014408 24.2572480000 43.9214670000 10.7536140000
220       5   2 -0.08955223880597014408 27.2635570000 42.1703080000 11.0477100000
221       5   2 -0.08955223880597014408 27.7850330000 46.3590000000 10.2921330000
222       5   2 -0.08955223880597014408 27.9854950000 45.6679240000 14.8143510000
223       5   2 -0.08955223880597014408 22.8828890000 43.4488930000 11.2262810000
224       5   2 -0.08955223880597014408 27.8444180000 41.1399160000 10.0797490000
225       5   2 -0.08955223880597014408 27.6868160000 47.7605720000  9.6917000000
226       5   2 -0.13432835820895519530 27.4786700000 46.6562800000 15.8523740000
227       5   2 -0.13432835820895519530 21.8893310000 43.3827540000 10.0772750000
228       5   2 -0.13432835820895519530 28.0231580000 39.7854140000 10.7470650000
229       5   2 -0.13432835820895519530 29.0430270000 48.2645030000  9.2248090000
230       5   3  0.04477611940298507204 28.5716070000 44.8063840000 12.2426700000
231       5   3  0.04477611940298507204 27.5709960000 43.6104860000 13.0741060000
232       5   3  0.04477611940298507204 24.8212620000 44.7703170000 12.5964700000
233       5   3  0.04477611940298507204 25.3543390000 43.0940890000 12.4876630000
234       5   3  0.04477611940298507204 28.1302300000 43.8424950000 10.0907740000
235       5   3  0.04477611940298507204 26.5036260000 43.5272670000  9.4785320000
236       5   3  0.04477611940298507204 25.9411170000 46.5763280000 11.4758080000
237       5   3  0.04477611940298507204 25.7922340000 45.7984440000  9.9030910000
238       5   3  0.04477611940298507204 26.0642140000 45.2265040000 14.0491310000
239       5   3  0.04477611940298507204 26.8935800000 46.5615530000 13.2365420000
240       5   3  0.04477611940298507204 24.5881000000 43.2079270000  9.9941300000
241       5   3  0.04477611940298507204 24.0974680000 44.8850550000 10.2637830000
242       5   3  0.04477611940298507204 26.3046860000 41.7655960000 11.3810430000
243       5   3  0.04477611940298507204 27.9479520000 42.1797190000 11.8977650000
244       5   3  0.04477611940298507204 28.1901900000 45.7177210000  9.5040080000
245       5   3  0.04477611940298507204 28.5255850000 46.4209880000 11.0929240000
246       5   3  0.04477611940298507204 28.9705330000 45.9945600000 14.4611330000
247       5   3  0.04477611940298507204 28.1186510000 44.6874480000 15.2860730000
248       5   3  0.04477611940298507204 22.4970570000 44.1297330000 11.9938300000
249       5   3  0.04477611940298507204 22.9691100000 42.4572630000 11.6865720000
250       5   3  0.04477611940298507204 28.8154280000 41.4836610000  9.7043610000
251       5   3  0.04477611940298507204 27.1821040000 41.0294380000  9.2132360000
252       5   3  0.04477611940298507204 27.2835670000 48.4571050000 10.4363710000
253       5   3  0.04477611940298507204 26.9924480000 47.7550710000  8.8434420000
254       5   3  0.04477611940298507204 26.5076710000 46.3453920000 16.2509460000
255       5   3  0.04477611940298507204 27.3692850000 47.6570530000 15.4211490000
256       5   3  0.04477611940298507204 28.1829530000 46.7222270000 16.6875570000
257       5   3  0.04477611940298507204 22.2287110000 42.6860780000  9.3039370000
258       5   3  0.04477611940298507204 21.7535160000 44.3676370000  9.6179420000
259       5   3  0.04477611940298507204 20.9150110000 43.0398480000 10.4385790000
260       5   3  0.04477611940298507204 27.0659910000 39.3961280000 11.1091760000
261       5   3  0.04477611940298507204 28.7100830000 39.8537370000 11.5970490000
262       5   3  0.04477611940298507204 28.4350370000 39.0640050000 10.0348860000
263       5   3  0.04477611940298507204 29.4640700000 47.6070850000  8.4564860000
264       5   3  0.04477611940298507204 29.7509190000 48.3158980000 10.0577100000
265       5   3  0.04477611940298507204 28.9480300000 49.2675660000  8.7977940000
266       6   1  0.38059701492537312273 48.5810200000 62.4458300000 45.8611170000
267       6   2  0.00186567164179104474 50.0934270000 62.2365680000 45.6968470000
268       6   2  0.00186567164179104474 48.0172580000 61.2508350000 46.6436340000
269       6   2  0.00186567164179104474 47.9451330000 62.4417320000 44.4633960000
270       6   2  0.00186567164179104474 48.2985730000 63.7190990000 46.5658360000
271       6   2 -0.08955223880597014408 50.7425450000 62.1948960000 47.0717840000
272       6   2 -0.08955223880597014408 46.5114040000 61.4136900000 46.7851580000
273       6   2 -0.08955223880597014408 48.2599100000 61.1211110000 43.7771570000
274       6   2 -0.08955223880597014408 48.8721670000 64.8740460000 45.7592250000
275       6   2 -0.08955223880597014408 52.2580850000 62.0341950000 46.9588180000
276       6   2 -0.08955223880597014408 45.9091950000 60.2686800000 47.5987300000
277       6   2 -0.08955223880597014408 47.6859710000 61.0882420000 42.3609770000
278       6   2 -0.08955223880597014408 48.6446780000 66.2072510000 46.4701280000
279       6   2 -0.13432835820895519530 52.9225530000 62.0273490000 48.3261690000
280       6   2 -0.13432835820895519530 44.4088400000 60.4388150000 47.7768840000
281       6   2 -0.13432835820895519530 48.0238230000 59.7865110000 41.6515500000
282       6   2 -0.13432835820895519530 49.2462480000 67.3656400000 45.6907120000
283       6   3  0.04477611940298507204 50.5157050000 62.9810960000 45.0179910000
284       6   3  0.04477611940298507204 50.2701520000 61.2488340000 45.2662920000
285       6   3  0.04477611940298507204 48.4239010000 61.2950950000 47.6586960000
286       6   3  0.04477611940298507204 48.3345500000 60.3023690000 46.2053330000
287       6   3  0.04477611940298507204 48.4242000000 63.2253110000 43.8688540000
288       6   3  0.04477611940298507204 46.8800110000 62.6751670000 44.5267860000
289       6   3  0.04477611940298507204 48.6510110000 63.6860360000 47.5998960000
290       6   3  0.04477611940298507204 47.2163320000 63.8774880000 46.5970240000
291       6   3  0.04477611940298507204 50.3884350000 61.3547890000 47.6761390000
292       6   3  0.04477611940298507204 50.5691930000 63.1144380000 47.6378250000
293       6   3  0.04477611940298507204 46.0021410000 61.4102360000 45.8176580000
294       6   3  0.04477611940298507204 46.2392490000 62.3349530000 47.3059000000
295       6   3  0.04477611940298507204 47.8271480000 60.2640050000 44.2990980000
296       6   3  0.04477611940298507204 49.3300940000 60.9456750000 43.6546610000
297       6   3  0.04477611940298507204 48.4026610000 64.9692330000 44.7758460000
298       6   3  0.04477611940298507204 49.9512130000 64.7862840000 45.6126530000
299       6   3  0.04477611940298507204 52.6763790000 62.8534460000 46.3624880000
300       6   3  0.04477611940298507204 52.4964920000 61.0994050000 46.4383220000
301       6   3  0.04477611940298507204 46.3834000000 60.2217180000 48.5858800000
302       6   3  0.04477611940298507204 46.1073140000 59.3131630000 47.0983650000
303       6   3  0.04477611940298507204 48.0822860000 61.9266090000 41.7761580000
304       6   3  0.04477611940298507204 46.5966490000 61.2051270000 42.3987460000
305       6   3  0.04477611940298507204 49.0939590000 66.1773860000 47.4699070000
306       6   3  0.04477611940298507204 47.5703900000 66.3807600000 46.6024950000
307       6   3  0.04477611940298507204 52.5503770000 61.2013760000 48.9406630000
308       6   3  0.04477611940298507204 52.7336390000 62.9652300000 48.8592330000
309       6   3  0.04477611940298507204 54.0055400000 61.9100870000 48.2199470000
310       6   3  0.04477611940298507204 43.8979410000 60.4587270000 46.8088070000
311       6   3  0.04477611940298507204 44.1789840000 61.3692990000 48.3067800000
312       6   3  0.04477611940298507204 44.0000290000 59.6072510000 48.3589490000
313       6   3  0.04477611940298507204 47.6169160000 58.9263970000 42.1932760000
314       6   3  0.04477611940298507204 49.1075470000 59.6563740000 41.5642930000
315       6   3  0.04477611940298507204 47.5993170000 59.7838310000 40.6430550000
316       6   3  0.04477611940298507204 48.7983030000 67.4444260000 44.6942510000
317       6   3  0.04477611940298507204 50.3268150000 67.2400710000 45.5720360000
318       6   3  0.04477611940298507204 49.0699850000 68.3086520000 46.2171720000
319       7   1  0.38059701492537312273 38.8739400000  2.5312290000 14.4402060000
320       7   2  0.00186567164179104474 38.1876410000  3.7326590000 13.7740920000
321       7   2  0.00186567164179104474 40.2903710000  2.9594250000 14.8507490000
322       7   2  0.00186567164179104474 38.9992300000  1.4141310000 13.3940750000
323       7   2  0.00186567164179104474 38.1003990000  2.0681070000 15.6169700000
324       7   2 -0.08955223880597014408 38.0888810000  4.8699450000 14.7792650000
325       7   2 -0.08955223880597014408 41.0073980000  1.7732540000 15.4776590000
326       7   2 -0.08955223880597014408 39.7968180000  1.9314190000 12.2065080000
327       7   2 -0.08955223880597014408 36.7074640000  1.6543620000 15.1674380000
328       7   2 -0.08955223880597014408 37.3694150000  6.0754520000 14.1754670000
329       7   2 -0.08955223880597014408 42.4090460000  2.1633740000 15.9454090000
330       7   2 -0.08955223880597014408 39.9086410000  0.8671290000 11.1152540000
331       7   2 -0.08955223880597014408 35.8556130000  1.2108370000 16.3558010000
332       7   2 -0.13432835820895519530 37.2324460000  7.2061800000 15.1823960000
333       7   2 -0.13432835820895519530 43.1230470000  0.9946140000 16.6056760000
334       7   2 -0.13432835820895519530 40.6742950000  1.3839180000  9.9075140000
335       7   2 -0.13432835820895519530 34.4489100000  0.8295660000 15.9232950000
336       7   3  0.04477611940298507204 37.2349810000  3.4363870000 13.3289550000
337       7   3  0.04477611940298507204 38.8299010000  4.1103990000 12.9759420000
338       7   3  0.04477611940298507204 40.1958580000  3.7095320000 15.6419980000
339       7   3  0.04477611940298507204 40.8219500000  3.4265570000 14.0191350000
340       7   3  0.04477611940298507204 37.9970850000  1.1827350000 13.0210580000
341       7   3  0.04477611940298507204 39.4035220000  0.5072200000 13.8491070000
342       7   3  0.04477611940298507204 38.1021290000  2.8179880000 16.4121180000
343       7   3  0.04477611940298507204 38.5703580000  1.1662260000 16.0207700000
344       7   3  0.04477611940298507204 39.0702850000  5.2281210000 15.1032630000
345       7   3  0.04477611940298507204 37.5227010000  4.5848320000 15.6704210000
346       7   3  0.04477611940298507204 41.1326000000  0.9462100000 14.7735700000
347       7   3  0.04477611940298507204 40.4867260000  1.3899550000 16.3585390000
348       7   3  0.04477611940298507204 40.8219580000  2.1988400000 12.4746710000
349       7   3  0.04477611940298507204 39.3325940000  2.7907100000 11.7194840000